------------------------------------------------------------
          Invoking FHI-aims ...

          When using FHI-aims, please cite the following reference:

            Volker Blum, Ralf Gehrke, Felix Hanke, Paula Havu,
            Ville Havu, Xinguo Ren, Karsten Reuter, and Matthias Scheffler,
            'Ab Initio Molecular Simulations with Numeric Atom-Centered Orbitals',
            Computer Physics Communications 180, 2175-2196 (2009)

          In addition, many other developments in FHI-aims are likely important for
          your particular application. If so, please cite them. A partial list of references
          is written at the end of this file. Thank you for giving credit to the authors
          of these developments.

          For general information about FHI-aims please find us at

            https://fhi-aims.org

          Online tutorials can be found at

            https://fhi-aims-club.gitlab.io/tutorials/tutorials-overview/

          For any questions about FHI-aims, please visit our slack channel at

            https://fhi-aims.slack.com

          and our main development and support site at

            https://aims-git.rz-berlin.mpg.de .

          The latter site, in particular, has a wiki to collect information, as well
          as an issue tracker to log discussions, suggest improvements, and report issues
          or bugs. https://aims-git.rz-berlin.mpg.de is also the main development site
          of the project and all new and updated code versions can be obtained there.
          Please send an email to aims-coordinators@fhi-berlin.mpg.de and we will add
          you to these sites. They are for you and everyone is welcome there.

------------------------------------------------------------



  Date     :  20250318, Time     :  171219.767
  Time zero on CPU 1             :   0.105714000000000E+00  s.
  Internal wall clock time zero  :           511549939.767  s.

  FHI-aims created a unique identifier for this run for later identification
  aims_uuid : A1C250D1-059D-442E-AFBA-A457BC2C6067

  Build configuration of the current instance of FHI-aims
  -------------------------------------------------------
  FHI-aims version      : 241121
  Commit number         : cef11cc39
  CMake host system     : Linux-6.8.0-40-generic
  CMake version         : 3.22.1
  Fortran compiler      : /usr/bin/mpif90 (GNU) version 11.4.0
  Fortran compiler flags: -O2 -fallow-argument-mismatch -ffree-line-length-none
  C compiler            : /usr/bin/cc (GNU) version 11.4.0
  C compiler flags      : -O2
  C++ compiler          : /usr/bin/c++ (GNU) version 11.4.0
  C++ compiler flags    : -O2
  HIP compiler          :
  HIP compiler flags    :
  HIP GPU arch          :
  Using MPI
  Using LibXC
  Using i-PI
  Using RLSY
  Linking against: /usr/lib/x86_64-linux-gnu/lapack/liblapack.so
                   /usr/lib/x86_64-linux-gnu/blas/libblas.so

  Using        1 parallel tasks.
  Task        0 on host yiy-Precision-Tower-7810 reporting.

  Obtaining array dimensions for all initial allocations:
  
  -----------------------------------------------------------------------
  Parsing control.in (first pass over file, find array dimensions only).
  The contents of control.in will be repeated verbatim below
  unless switched off by setting 'verbatim_writeout .false.' .
  in the first line of control.in .
  -----------------------------------------------------------------------
  
   xc pbe
   spin collinear
   default_initial_moment hund
   KS_method serial
   empty_states 10000
   occupation_type gaussian 0.000001
   output_level full
   #mixer linear
   n_max_pulay 20
   sc_accuracy_rho 1e-4
   sc_accuracy_eev 1e-6
   sc_accuracy_etot 1e-7
   restart_write_only restart.1
  # atom:  O
  # We get electronic configuration of atom from Mendeleev package
  # https://mendeleev.readthedocs.io/en/stable/index.html
  # (1, 's') {'pairs': 1, 'alpha': 1, 'beta': 1, 'unpaired': 0}
  # (2, 's') {'pairs': 1, 'alpha': 1, 'beta': 1, 'unpaired': 0}
  # (2, 'p') {'pairs': 1, 'alpha': 3, 'beta': 1, 'unpaired': 2}
  # n_alpha - n_beta 2
  # We found unpaired electrons in the atom.
  # We use the following keywords to break the spherical symmetry.
  #force_occupation_basis 1 1 atomic 2 1 0 1.0 9
  #force_occupation_basis 1 1 atomic 2 1 -1 1.0 9
  #force_occupation_basis 1 1 atomic 2 1 1 1.0 9
  #force_occupation_basis 1 2 atomic 2 1 0 1.0 9
  #force_occupation_basis 1 2 atomic 2 1 -1 0.0 9
  #force_occupation_basis 1 2 atomic 2 1 1 0.0 9
  
  ################################################################################
  #
  #  FHI-aims code project
  #  VB, Fritz-Haber Institut, 2009
  #
  #  Suggested "light" defaults for O atom (to be pasted into control.in file)
  #  Be sure to double-check any results obtained with these settings for post-processing,
  #  e.g., with the "tight" defaults and larger basis sets.
  #
  ################################################################################
    species        O
  #     global species definitions
      nucleus             8
      mass                15.9994
  #
      l_hartree           4
  #
      cut_pot             3.5  1.5  1.0
      basis_dep_cutoff    1e-4
  #
      radial_base         36 5.0
      radial_multiplier   1
       angular_grids specified
        division   0.2659   50
        division   0.4451  110
        division   0.6052  194
        division   0.7543  302
  #      division   0.8014  434
  #      division   0.8507  590
  #      division   0.8762  770
  #      division   0.9023  974
  #      division   1.2339 1202
  #      outer_grid 974
        outer_grid 302
  ################################################################################
  #
  #  Definition of "minimal" basis
  #
  ################################################################################
  #     valence basis states
      valence      2  s   2.
      valence      2  p   4.
  #     ion occupancy
      ion_occ      2  s   1.
      ion_occ      2  p   3.
  ################################################################################
  #
  #  Suggested additional basis functions. For production calculations,
  #  uncomment them one after another (the most important basis functions are
  #  listed first).
  #
  #  Constructed for dimers: 1.0 A, 1.208 A, 1.5 A, 2.0 A, 3.0 A
  #
  ################################################################################
  #  "First tier" - improvements: -699.05 meV to -159.38 meV
       hydro 2 p 1.8
       hydro 3 d 7.6
       hydro 3 s 6.4
  #  "Second tier" - improvements: -49.91 meV to -5.39 meV
  #     hydro 4 f 11.6
  #     hydro 3 p 6.2
  #     hydro 3 d 5.6
  #     hydro 5 g 17.6
  #     hydro 1 s 0.75
  #  "Third tier" - improvements: -2.83 meV to -0.50 meV
  #     ionic 2 p auto
  #     hydro 4 f 10.8
  #     hydro 4 d 4.7
  #     hydro 2 s 6.8
  #  "Fourth tier" - improvements: -0.40 meV to -0.12 meV
  #     hydro 3 p 5
  #     hydro 3 s 3.3
  #     hydro 5 g 15.6
  #     hydro 4 f 17.6
  #     hydro 4 d 14
  # Further basis functions - -0.08 meV and below
  #     hydro 3 s 2.1
  #     hydro 4 d 11.6
  #     hydro 3 p 16
  #     hydro 2 s 17.2
  
  -----------------------------------------------------------------------
  Completed first pass over input file control.in .
  -----------------------------------------------------------------------
  
  
  -----------------------------------------------------------------------
  Parsing geometry.in (first pass over file, find array dimensions only).
  The contents of geometry.in will be repeated verbatim below
  unless switched off by setting 'verbatim_writeout .false.' .
  in the first line of geometry.in .
  -----------------------------------------------------------------------
  
  #=======================================================
  # FHI-aims file: run/8_O/run_1/geometry.in
  # Created using the Atomic Simulation Environment (ASE)
  # Tue Feb  4 11:31:58 2025
  #=======================================================
  atom 0.0000000000000000 0.0000000000000000 0.0000000000000000 O
  
  -----------------------------------------------------------------------
  Completed first pass over input file geometry.in .
  -----------------------------------------------------------------------
  

  Basic array size parameters:
  | Number of species                 :        1
  | Number of atoms                   :        1
  | Max. basis fn. angular momentum   :        2
  | Max. atomic/ionic basis occupied n:        2
  | Max. number of basis fn. types    :        2
  | Max. radial fns per species/type  :        3
  | Max. logarithmic grid size        :     1301
  | Max. radial integration grid size :       36
  | Max. angular integration grid size:      302
  | Max. angular grid division number :        8
  | Radial grid for Hartree potential :     1301
  | Number of spin channels           :        2

  Definition of standardized fundamental physical constants in this FHI-aims run:
  | Using the set of values used in FHI-aims up to 2024, which combines values from
  | different CODATA sets - see constants.f90.
  | Use the 'codata' keyword in control.in to change this selection.

  Memory overcommitment is allowed on your operating system.

------------------------------------------------------------
          Reading file control.in.
------------------------------------------------------------
  XC: Using PBE gradient-corrected functionals.
  Spin treatment: Spin density functional theory - collinear spins.
  Initial spin moment per atom set according to Hund's rules.
  Kohn-Sham eigenvalues and eigenfunctions calculated by LAPACK via ELSI.
  Number of empty states per atom:    10000
  Occupation type: Gaussian broadening, width =   0.100000E-05 eV.
  Requested output level: full
  Pulay mixing - number of memorized iterations:   20
  Convergence accuracy of self-consistent charge density:  0.1000E-03
  Convergence accuracy of sum of eigenvalues:  0.1000E-05
  Convergence accuracy of total energy:  0.1000E-06
  Writing restart information to file restart.1

  Reading configuration options for species O                   .
  | Found nuclear charge :   8.0000
  | Found atomic mass :    15.999400000000000      amu
  | Found l_max for Hartree potential  :   4
  | Found cutoff potl. onset [A], width [A], scale factor :    3.50000    1.50000    1.00000
  | Threshold for basis-dependent cutoff potential is   0.100000E-03
  | Found data for basic radial integration grid :    36 points, outermost radius =    5.000 A
  | Found multiplier for basic radial grid :   1
  | Found angular grid specification: user-specified.
  | Specified grid contains     5 separate shells.
  | Check grid settings after all constraints further below.
  | Found free-atom valence shell :  2 s   2.000
  | Found free-atom valence shell :  2 p   4.000
  | No ionic wave fns used. Skipping ion_occ.
  | No ionic wave fns used. Skipping ion_occ.
  | Found hydrogenic basis function :  2 p   1.800
  | Found hydrogenic basis function :  3 d   7.600
  | Found hydrogenic basis function :  3 s   6.400
  Species O                   : Missing cutoff potential type.
  Defaulting to exp(1/x)/(1-x)^2 type cutoff potential.
  Species O : No 'logarithmic' tag. Using default grid for free atom:
  | Default logarithmic grid data [bohr] : 0.1000E-03 0.1000E+03 0.1012E+01
  Species O : On-site basis accuracy parameter (for Gram-Schmidt orthonormalisation) not specified.
  Using default value basis_acc =  0.1000000E-03.
  Species O                   : Using default innermost maximum threshold i_radial=  2 for radial functions.
  Species O                   : Default cutoff onset for free atom density etc. : 0.35000000E+01 AA.
  Species O                   : Basic radial grid will be enhanced according to radial_multiplier =   1, to contain    36 grid points.

  Finished reading input file 'control.in'.

------------------------------------------------------------


------------------------------------------------------------
          Reading geometry description geometry.in.
------------------------------------------------------------
  | Isolated single atom, no quantum-mechanical atoms close by.
  Input structure read successfully.
  The structure contains        1 atoms,  and a total of          8.000 electrons.

  Input geometry:
  | No unit cell requested.
  | Atomic structure:
  |       Atom                x [A]            y [A]            z [A]
  |    1: Species O             0.00000000        0.00000000        0.00000000

  Initial moments and charges:
  |  Atom   Moment         Charge        Species
  |     1  (Hund's rule)   0.000000E+00   O

  Slab Identifier: This is not a periodic structure.

  Finished reading input file 'geometry.in'.



  Consistency checks for stacksize environment parameter are next.

  | Maximum stacksize for task 0: unlimited
  | Current stacksize for task 0: unlimited

  Consistency checks for the contents of control.in are next.

  MPI_IN_PLACE appears to work with this MPI implementation.
  | Keeping use_mpi_in_place .true. (see manual).
  Target number of points in a grid batch is not set. Defaulting to  100
  Method for grid partitioning is not set. Defaulting to parallel hash+maxmin partitioning.
  Batch size limit is not set. Defaulting to    200
  By default, will store active basis functions for each batch.
  If in need of memory, prune_basis_once .false. can be used to disable this option.
  communication_type for Hartree potential was not specified.
  Defaulting to calc_hartree .
  Defaulting to Pulay charge density mixer.
  Pulay mixer: Number of initial linear mixing iterations not set.
  Defaulting to    0 iterations.
  Work space size for distributed Hartree potential not set.
  Defaulting to   0.200000E+03 MB.
  Mixing parameter for charge density mixing has not been set.
  Using default: charge_mix_param =     0.0500.
  The mixing parameter will be adjusted in iteration number     2 of each s.c.f. cycle (i.e., each geometry step).
  Mixing parameter for spin density mixing has not been set.
  Using charge_mix_param as default:     0.0500.
  Algorithm-dependent basis array size parameters:
  | n_max_pulay                         :       20
  Maximum number of self-consistency iterations not provided.
  Presetting  1000 iterations.
  Presetting      1001 iterations before the initial mixing cycle
  is restarted anyway using the sc_init_iter criterion / keyword.
  Presetting a factor      1.000 between actual scf density residual
  and density convergence criterion sc_accuracy_rho below which sc_init_iter
  takes no effect.
  Calculation of forces was not defined in control.in. No forces will be calculated.
  Geometry relaxation not requested: no relaxation will be performed.
  No accuracy limit for integral partition fn. given. Defaulting to  0.1000E-14.
  No threshold value for u(r) in integrations given. Defaulting to  0.1000E-05.
  No accuracy for occupation numbers given. Defaulting to  0.1000E-12.
  No threshold value for occupation numbers given. Defaulting to  0.0000E+00.
  No accuracy for fermi level given. Defaulting to  0.1000E-19.
  Maximum # of iterations to find E_F not set. Defaulting to  200.
  Will not use alltoall communication since running on < 1024 CPUs.
  Threshold for basis singularities not set.
  Default threshold for basis singularities:  0.1000E-04
  partition_type (choice of integration weights) for integrals was not specified.
  | Using a version of the partition function of Stratmann and coworkers ('stratmann_sparse').
  | At each grid point, the set of atoms used to build the partition table is smoothly restricted to
  | only those atoms whose free-atom density would be non-zero at that grid point.
  Partitioning for Hartree potential was not defined. Using partition_type for integrals.
  | Adjusted default value of keyword multip_moments_threshold to:       0.10000000E-11
  | This value may affect high angular momentum components of the Hartree potential in periodic systems.
  No q(lm)/r^(l+1) cutoff set for long-range Hartree potential.
  | Using default value of  0.100000E-09 .
  | Verify using the multipole_threshold keyword.
  Defaulting to new monopole extrapolation.
  Density update method: automatic selection selected.
  Charge integration errors on the 3D integration grid will be compensated
  by explicit normalization and distribution of residual charges.
  Use the "compensate_multipole_errors" flag to change this behaviour.
  Set 'collect_eigenvectors' to be '.true.' for all serial calculations. This is mandatory.
  Set 'collect_eigenvectors' to be '.true.' for use_density_matrix .false.
  Set 'collect_eigenvectors' to be '.true.' for KS_method lapack_fast and serial.
  Found potential conflicts with setting 'use_local_index' for this calculation. Will not set it.

  Consistency checks for the contents of geometry.in are next.

 * Warning! You did not set the 'relativistic' flag in input file 'control.in'.
 * FHI-aims will default to 'relativistic atomic_zora scalar'.
 * You must ensure that this is really what you want!!
 * For example, DO NOT compute total-energy differences between results from
 * different settings of the 'relativistic' flag.
  Structure-dependent array size parameters: 
  | Number of distinct atom types in initial rho :        1
  | Maximum number of distinct radial functions  :        6
  | Maximum number of basis functions            :       14
  | Number of Kohn-Sham states (occupied + empty):     5004
------------------------------------------------------------
  After read_input_data [GB]:    123.27

  Performing system and environment tests:
  *** Environment variable OMP_NUM_THREADS is not set
  *** For performance reasons you might want to set it to 1
  | Checking for ScaLAPACK...
  | No ScaLAPACK compiled in.
  After prepare_system [GB]:    123.27

------------------------------------------------------------
          Preparing all fixed parts of the calculation.
------------------------------------------------------------
  Determining machine precision:
     2.2250738585072014E-308
  Setting up grids for atomic and cluster calculations.

  Creating wave function, potential, and density for free atoms.
  Runtime choices for atomic solver:
  | atomic solver xc        : PBE
  | compute density gradient: 1
  | compute kinetic density : F

  Species: O

  List of occupied orbitals and eigenvalues:
    n    l              occ      energy [Ha]    energy [eV]
    1    0           2.0000       -18.926989      -515.0296
    2    0           2.0000        -0.880247       -23.9527
    2    1           4.0000        -0.331514        -9.0210

  Spin-polarized or charged system:
  Charge density initialized according to selected moments and charges.

  Creating spin-polarized density from free atoms.

  Species: O
  Charge:   0.000000
  applying Hund's rules ...

  List of occupied orbitals and eigenvalues:
    n    l      energy [Ha]    energy [eV]    occupation
  Spin-up
    1    0       -18.931227      -515.1449     1.00000000
    2    0        -0.926310       -25.2062     1.00000000
    2    1        -0.375321       -10.2130     3.00000000
  Spin-down
    1    0       -18.885935      -513.9124     1.00000000
    2    0        -0.806966       -21.9587     1.00000000
    2    1        -0.263675        -7.1750     1.00000000


  Adding cutoff potential to free-atom effective potential.
  Creating fixed part of basis set: Ionic, confined, hydrogenic.

  O                    hydrogenic:

  List of hydrogenic basis orbitals: 
    n    l      effective z      eigenvalue [eV]  inner max. [A]     outer max. [A]     outer radius [A]   
    2    1         1.800000       -10.9749           1.164242           1.164242           4.578029
    3    2         7.600000       -87.3180           0.624125           0.624125           3.251020
    3    0         6.400000       -61.9207           0.061167           1.081902           4.001998

  Creating atomic-like basis functions for current effective potential.

  Species O                   :

  List of atomic basis orbitals and eigenvalues:
    n    l      energy [Ha]    energy [eV]    outer radius [A]
    1    0       -18.926989      -515.0296       1.415765
    2    0        -0.880247       -23.9527       4.413171
    2    1        -0.331514        -9.0210       4.522403

  Assembling full basis from fixed parts.
  | Species O :   atomic orbital   1 s accepted.
  | Species O :    hydro orbital   3 s accepted.
  | Species O :   atomic orbital   2 s accepted.
  | Species O :   atomic orbital   2 p accepted.
  | Species O :    hydro orbital   2 p accepted.
  | Species O :    hydro orbital   3 d accepted.

  * You requested     5004 Kohn-Sham states in the calculation,
  * but there are only       14 available basis states.
  * Reducing total number of  Kohn-Sham states to       14.


  Basis size parameters after reduction:
  | Total number of radial functions:        6
  | Total number of basis functions :       14

  Per-task memory consumption for arrays in subroutine allocate_ext:
  |           1.999004MB.
  Testing on-site integration grid accuracy.
  |  Species  Function  <phi|h_atom|phi> (log., in eV)  <phi|h_atom|phi> (rad., in eV)
           1        1               -515.0295626295               -515.0294562738
           1        2                 15.1698434419                 15.1699322204
           1        3                -21.6038822678                -21.6039118105
           1        4                 -9.0211123393                 -9.0212703513
           1        5                  8.3047696391                  8.2854840999
           1        6                 45.8428042125                 45.8427461222

  Preparing densities etc. for the partition functions (integrals / Hartree potential).

  Preparations completed.
  max(cpu_time)          :      0.145 s.
  Wall clock time (cpu1) :      0.145 s.
------------------------------------------------------------
  After prepare_scf [GB]:    123.24

  Initializing index lists of integration centers etc. from given atomic structure:
  | Number of centers in hartree potential         :         1
  | Number of centers in hartree multipole         :         1
  | Number of centers in electron density summation:         1
  | Number of centers in basis integrals           :         1
  | Number of centers in integrals                 :         1
  | Number of centers in hamiltonian               :         1
  After initialize_bc_dependent_lists [GB]:    123.24

------------------------------------------------------------
          Begin self-consistency loop: Initialization.

          Date     :  20250318, Time     :  171219.916
------------------------------------------------------------
  Available memory per node after initialize_hartree_non_periodic_ewald [GB]:    123.24
  Available memory per node after initialize_recip_hartree_potential [GB]:    123.24
  Available memory per node after initialize_scalapack [GB]:    123.24
  Available memory per node after aims_elsi_init_scf [GB]:    123.24
  Available memory per node after initialize_fixed_grids [GB]:    123.24
  Partitioning the integration grid into batches with parallel hashing+maxmin method.
  | Number of batches:       96
  | Maximal batch size:      96
  | Minimal batch size:      51
  | Average batch size:      67.125
  | Standard deviation of batch sizes:      18.109

  Integration load balanced across     1 MPI tasks.
  Work distribution over tasks is as follows:
  Task     0 has       6444 integration points.
  Available memory per node after partition_grid [GB]:    123.24
  Initializing partition tables, free-atom densities, potentials, etc. across the integration grid (initialize_grid_storage).
  | initialize_grid_storage: Actual outermost partition radius vs. multipole_radius_free
  | (-- VB: in principle, multipole_radius_free should be larger, hence this output)
  | Species        1: Confinement radius =              4.999999999999999 AA, multipole_radius_free =              5.048384829883283 AA.
  | Species        1: outer_partition_radius set to              5.048384829883283 AA .
  | The sparse table of interatomic distances needs          0.01 kbyte instead of         0.01 kbyte of memory.
  | Net number of integration points:     6444
  | of which are non-zero points    :     6444
  Available memory per node after initialize_grid_storage_p1 [GB]:    123.24
  Renormalizing the initial density to the exact electron count on the 3D integration grid.
  | Initial density: Formal number of electrons (from input files) :       8.0000000000
  | Integrated number of electrons on 3D grid     :       7.9999827889
  | Charge integration error                      :      -0.0000172111
  | Normalization factor for density and gradient :       1.0000021514
  Renormalizing the free-atom superposition density to the exact electron count on the 3D integration grid.
  | Formal number of electrons (from input files) :       8.0000000000
  | Integrated number of electrons on 3D grid     :       7.9999831343
  | Charge integration error                      :      -0.0000168657
  | Normalization factor for density and gradient :       1.0000021082
  Obtaining max. number of non-zero basis functions in each batch (get_n_compute_maxes).
  | Maximal number of non-zero basis functions:       14 in task     0
  Selecting the method for density update.
  Loop over occupied states selected for charge density update.
  Available memory per node after get_n_compute_maxes_p1 [GB]:    123.24
  Initialize hartree_potential_storage
  Max. number of atoms included in rho_multipole:            1

  Evaluating partitioned Hartree potential by multipole expansion.
  | Original multipole sum: apparent total charge =   0.859803E-13
  | Sum of charges compensated after spline to logarithmic grids =  -0.293251E-06
  | Analytical far-field extrapolation by fixed multipoles:
  | Hartree multipole sum: apparent total charge =   0.859807E-13
  Summing up the Hartree potential.
  Time summed over all CPUs for potential: real work        0.001 s, elapsed        0.001 s
  | RMS charge density error from multipole expansion :   0.145123E-15

  Allocating        0.003 MB for KS_eigenvector
  Available memory per node after allocate_matrices [GB]:    123.24
  Available memory per node after init_comm_sparse_local_matrix_scalapack [GB]:    123.24
  Integrating Hamiltonian matrix: batch-based integration.
  Time summed over all CPUs for integration: real work        0.010 s, elapsed        0.010 s
          Integrate hamiltonian matrix                 :  max(cpu_time)    wall_clock(cpu1)
          | Total time                                  :        0.010 s           0.010 s
  Available memory per node after integrate hamiltonian matrix [GB]:    123.24
  Integrating overlap matrix.
  Time summed over all CPUs for integration: real work        0.002 s, elapsed        0.002 s
  Available memory per node after integrate ovlp matrix [GB]:    123.24
  Available memory per node after ASI_callbacks invoke [GB]:    123.24
  Available memory per node after save_overlap_scalapack [GB]:    123.24

  Updating Kohn-Sham eigenvalues and eigenvectors using ELSI and the (modified) LAPACK eigensolver.
      Allocating      0.002 MB for copy
      Allocating      0.000 MB for offd
      Allocating      0.000 MB for tau
      Allocating      0.002 MB for tmp
  Overlap matrix is not singular
  | Lowest and highest eigenvalues :  0.9995E+00,  0.1000E+01
      Deallocating offd
      Deallocating tau
      Deallocating tmp
      Deallocating copy
  Finished singularity check of overlap matrix
  | Time :     0.000 s
  Starting LAPACK eigensolver
  Finished Cholesky decomposition
  | Time :     0.000 s
  Finished transformation to standard eigenproblem
  | Time :     0.000 s
      Allocating      0.000 MB for offd
      Allocating      0.000 MB for tau
      Allocating      0.002 MB for tmp
      Deallocating offd
      Deallocating tau
      Deallocating tmp
  Finished solving standard eigenproblem
  | Time :     0.000 s
  Finished back-transformation of eigenvectors
  | Time :     0.000 s

  Obtaining occupation numbers and electronic chemical potential using ELSI.
  | Note that, for insulating systems, the printed 'chemical potential' value is not uniquely defined.
  | It can be anywhere in the energy gap, as long as it correctly separates occupied and unoccupied states.
  | In systems with a gap, the physically relevant chemical potential is the VBM or HOMO.

  Chemical potential cannot reach required accuracy
  | Residual error :  0.1389E-08
  Error will be removed from highest occupied states
      Allocating      0.000 MB for eval_tmp
      Allocating      0.000 MB for occ_tmp
      Deallocating eval_tmp
      Deallocating occ_tmp
  | Chemical potential (Fermi level):    -7.17459384 eV
  Available memory per node after advance_KS_solution [GB]:    123.24
  Writing Kohn-Sham eigenvalues.

  Spin-up eigenvalues:

  State    Occupation    Eigenvalue [Ha]    Eigenvalue [eV]
      1       1.00000         -18.931212         -515.14448
      2       1.00000          -0.926300          -25.20591
      3       1.00000          -0.375307          -10.21261
      4       1.00000          -0.375307          -10.21261
      5       1.00000          -0.375307          -10.21261
      6       0.00000           0.286977            7.80904
      7       0.00000           0.286977            7.80904
      8       0.00000           0.286977            7.80904
      9       0.00000           0.616870           16.78589
     10       0.00000           1.645901           44.78724
     11       0.00000           1.645901           44.78724
     12       0.00000           1.645901           44.78724
     13       0.00000           1.645901           44.78724
     14       0.00000           1.645901           44.78724

  Spin-down eigenvalues:

  State    Occupation    Eigenvalue [Ha]    Eigenvalue [eV]
      1       1.00000         -18.885955         -513.91299
      2       1.00000          -0.806945          -21.95810
      3       0.33333          -0.263661           -7.17459
      4       0.33333          -0.263661           -7.17459
      5       0.33333          -0.263661           -7.17459
      6       0.00000           0.335071            9.11775
      7       0.00000           0.335071            9.11775
      8       0.00000           0.335071            9.11775
      9       0.00000           0.688149           18.72549
     10       0.00000           1.746071           47.51302
     11       0.00000           1.746071           47.51302
     12       0.00000           1.746071           47.51302
     13       0.00000           1.746071           47.51302
     14       0.00000           1.746071           47.51302

  Current spin moment of the entire structure :
  | N = N_up - N_down :    2.00
  | S                 :    1.00
  | J                 :    3.00

  Highest occupied state (VBM) at    -10.21261323 eV
  | Occupation number:      1.00000000
  | Spin channel:        1

  Lowest unoccupied state (CBM) at    -7.17459353 eV
  | Occupation number:      0.33333338
  | Spin channel:        2

  This system has fractional occupation numbers. Thus, it is a degenerate system
  within the approximate finite broadening function (occupation_type)
  applied to determine the occupation numbers.
  This may not be harmful. However, for some systems (free atoms), a different, non-degenerate
  ground state might exist by using a smaller broadening (see keyword occupation_type).
  Overall HOMO-LUMO gap:      0.00000000 eV.
  Calculating total energy contributions from superposition of free atom densities.

  Total energy components:
  | Sum of eigenvalues            :         -40.93999398 Ha       -1114.03391758 eV
  | XC energy correction          :          -8.34740846 Ha        -227.14454126 eV
  | XC potential correction       :          10.72546597 Ha         291.85477841 eV
  | Free-atom electrostatic energy:         -36.44232393 Ha        -991.64608855 eV
  | Hartree energy correction     :          -0.08271747 Ha          -2.25085682 eV
  | Entropy correction            :          -0.00000001 Ha          -0.00000039 eV
  | ---------------------------
  | Total energy                  :         -75.08697787 Ha       -2043.22062581 eV
  | Total energy, T -> 0          :         -75.08697789 Ha       -2043.22062619 eV  <-- do not rely on this value for anything but (periodic) metals
  | Electronic free energy        :         -75.08697790 Ha       -2043.22062658 eV

  Derived energy quantities:
  | Kinetic energy                :          74.98939167 Ha        2040.56517008 eV
  | Electrostatic energy          :        -141.72896108 Ha       -3856.64125463 eV
  | Energy correction for multipole
  | error in Hartree potential    :          -0.00000000 Ha          -0.00000000 eV
  | Sum of eigenvalues per atom                           :       -1114.03391758 eV
  | Total energy (T->0) per atom                          :       -2043.22062619 eV  <-- do not rely on this value for anything but (periodic) metals
  | Electronic free energy per atom                       :       -2043.22062658 eV

  End scf initialization - timings             :  max(cpu_time)    wall_clock(cpu1)
  | Time for scf. initialization                :        0.028 s           0.028 s
  | Boundary condition initialization           :        0.000 s           0.000 s
  | Integration                                 :        0.013 s           0.012 s
  | Solution of K.-S. eqns.                     :        0.001 s           0.001 s
  | Grid partitioning                           :        0.005 s           0.005 s
  | Preloading free-atom quantities on grid     :        0.005 s           0.006 s
  | Free-atom superposition energy              :        0.004 s           0.004 s
  | Total energy evaluation                     :        0.000 s           0.000 s

  Partial memory accounting:
  | Current value for overall tracked memory usage:
  |   Minimum:        0.006 MB (on task 0)
  |   Maximum:        0.006 MB (on task 0)
  |   Average:        0.006 MB
  | Peak value for overall tracked memory usage:
  |   Minimum:        0.221 MB (on task 0 after allocating grid_partition)
  |   Maximum:        0.221 MB (on task 0 after allocating grid_partition)
  |   Average:        0.221 MB
  | Largest tracked array allocation so far:
  |   Minimum:        0.147 MB (all_coords on task 0)
  |   Maximum:        0.147 MB (all_coords on task 0)
  |   Average:        0.147 MB
  Note:  These values currently only include a subset of arrays which are explicitly tracked.
  The "true" memory usage will be greater.
------------------------------------------------------------
  Available memory after initialize_scf [GB]:    123.24
  Available memory after allocating mixing [GB]:    123.24
  Evaluating new KS density.
  Integration grid: deviation in total charge (<rho> - N_e) =   3.552714E-15
  | <rho_up-rho_dn> = N_up-N_dn =      2.0000; <|rho_up-rho_dn|> =      2.0001

  Time for density update prior                :  max(cpu_time)    wall_clock(cpu1)
  | self-consistency iterative process          :        0.009 s           0.010 s
  Available memory before start of SCF loop [GB]:    123.24

------------------------------------------------------------
          Begin self-consistency iteration #    1

  Date     :  20250318, Time     :  171219.954
------------------------------------------------------------
  Pulay mixing of updated and previous charge densities.
  Available memory per node after mixing [GB]:    123.24
  Renormalizing the density to the exact electron count on the 3D integration grid.
  | Formal number of electrons (from input files) :       8.0000000000
  | Integrated number of electrons on 3D grid     :       8.0000000000
  | Charge integration error                      :      -0.0000000000
  | Normalization factor for density and gradient :       1.0000000000

  Evaluating partitioned Hartree potential by multipole expansion.
  | Original multipole sum: apparent total charge =   0.293591E-13
  | Sum of charges compensated after spline to logarithmic grids =  -0.150415E-06
  | Analytical far-field extrapolation by fixed multipoles:
  | Hartree multipole sum: apparent total charge =   0.293771E-13
  Summing up the Hartree potential.
  Time summed over all CPUs for potential: real work        0.001 s, elapsed        0.001 s
  | RMS charge density error from multipole expansion :   0.136024E-09

  Integrating Hamiltonian matrix: batch-based integration.
  Time summed over all CPUs for integration: real work        0.011 s, elapsed        0.011 s
          Integrate hamiltonian matrix                 :  max(cpu_time)    wall_clock(cpu1)
          | Total time                                  :        0.011 s           0.011 s

  Updating Kohn-Sham eigenvalues and eigenvectors using ELSI and the (modified) LAPACK eigensolver.
  Starting LAPACK eigensolver
  Finished Cholesky decomposition
  | Time :     0.000 s
  Finished transformation to standard eigenproblem
  | Time :     0.000 s
      Allocating      0.000 MB for offd
      Allocating      0.000 MB for tau
      Allocating      0.002 MB for tmp
      Deallocating offd
      Deallocating tau
      Deallocating tmp
  Finished solving standard eigenproblem
  | Time :     0.000 s
  Finished back-transformation of eigenvectors
  | Time :     0.000 s

  Obtaining occupation numbers and electronic chemical potential using ELSI.
  | Note that, for insulating systems, the printed 'chemical potential' value is not uniquely defined.
  | It can be anywhere in the energy gap, as long as it correctly separates occupied and unoccupied states.
  | In systems with a gap, the physically relevant chemical potential is the VBM or HOMO.

  Chemical potential cannot reach required accuracy
  | Residual error :  0.6222E-10
  Error will be removed from highest occupied states
      Allocating      0.000 MB for eval_tmp
      Allocating      0.000 MB for occ_tmp
      Deallocating eval_tmp
      Deallocating occ_tmp
  | Chemical potential (Fermi level):    -7.17498364 eV
  Writing Kohn-Sham eigenvalues.

  Spin-up eigenvalues:

  State    Occupation    Eigenvalue [Ha]    Eigenvalue [eV]
      1       1.00000         -18.931240         -515.14526
      2       1.00000          -0.926297          -25.20584
      3       1.00000          -0.375307          -10.21263
      4       1.00000          -0.375307          -10.21263
      5       1.00000          -0.375307          -10.21263
      6       0.00000           0.286977            7.80905
      7       0.00000           0.286977            7.80905
      8       0.00000           0.286977            7.80905
      9       0.00000           0.616867           16.78581
     10       0.00000           1.645904           44.78732
     11       0.00000           1.645904           44.78732
     12       0.00000           1.645904           44.78732
     13       0.00000           1.645904           44.78732
     14       0.00000           1.645904           44.78732

  Spin-down eigenvalues:

  State    Occupation    Eigenvalue [Ha]    Eigenvalue [eV]
      1       1.00000         -18.885910         -513.91175
      2       1.00000          -0.806964          -21.95862
      3       0.33486          -0.263676           -7.17498
      4       0.33384          -0.263676           -7.17498
      5       0.33130          -0.263676           -7.17498
      6       0.00000           0.335078            9.11792
      7       0.00000           0.335078            9.11792
      8       0.00000           0.335078            9.11792
      9       0.00000           0.688148           18.72545
     10       0.00000           1.746055           47.51257
     11       0.00000           1.746055           47.51257
     12       0.00000           1.746055           47.51257
     13       0.00000           1.746055           47.51257
     14       0.00000           1.746055           47.51257

  Current spin moment of the entire structure :
  | N = N_up - N_down :    2.00
  | S                 :    1.00
  | J                 :    3.00

  Highest occupied state (VBM) at    -10.21262798 eV
  | Occupation number:      1.00000000
  | Spin channel:        1

  Lowest unoccupied state (CBM) at    -7.17498334 eV
  | Occupation number:      0.33486463
  | Spin channel:        2

  This system has fractional occupation numbers. Thus, it is a degenerate system
  within the approximate finite broadening function (occupation_type)
  applied to determine the occupation numbers.
  This may not be harmful. However, for some systems (free atoms), a different, non-degenerate
  ground state might exist by using a smaller broadening (see keyword occupation_type).
  Overall HOMO-LUMO gap:      0.00000000 eV.

  Total energy components:
  | Sum of eigenvalues            :         -40.94000924 Ha       -1114.03433283 eV
  | XC energy correction          :          -8.34739637 Ha        -227.14421233 eV
  | XC potential correction       :          10.72545129 Ha         291.85437897 eV
  | Free-atom electrostatic energy:         -36.44232393 Ha        -991.64608855 eV
  | Hartree energy correction     :          -0.08269983 Ha          -2.25037676 eV
  | Entropy correction            :          -0.00000001 Ha          -0.00000039 eV
  | ---------------------------
  | Total energy                  :         -75.08697808 Ha       -2043.22063151 eV
  | Total energy, T -> 0          :         -75.08697810 Ha       -2043.22063189 eV  <-- do not rely on this value for anything but (periodic) metals
  | Electronic free energy        :         -75.08697811 Ha       -2043.22063228 eV

  Derived energy quantities:
  | Kinetic energy                :          74.98966897 Ha        2040.57271574 eV
  | Electrostatic energy          :        -141.72925067 Ha       -3856.64913492 eV
  | Energy correction for multipole
  | error in Hartree potential    :           0.00000000 Ha           0.00000000 eV
  | Sum of eigenvalues per atom                           :       -1114.03433283 eV
  | Total energy (T->0) per atom                          :       -2043.22063189 eV  <-- do not rely on this value for anything but (periodic) metals
  | Electronic free energy per atom                       :       -2043.22063228 eV
  Evaluating new KS density.
  Integration grid: deviation in total charge (<rho> - N_e) =   7.105427E-15
  | <rho_up-rho_dn> = N_up-N_dn =      2.0000; <|rho_up-rho_dn|> =      2.0001

  Self-consistency convergence accuracy:
  | Change of charge/spin density :  0.1276E-02  0.7684E-02
  | Change of unmixed KS charge/spin density :  0.9044E+01  0.5424E+00
  | Change of sum of eigenvalues  : -0.4153E-03 eV
  | Change of total energy        : -0.5700E-05 eV


------------------------------------------------------------
  End self-consistency iteration #     1       :  max(cpu_time)    wall_clock(cpu1)
  | Time for this iteration                     :        0.022 s           0.022 s
  | Charge density update                       :        0.007 s           0.007 s
  | Density mixing                              :        0.001 s           0.001 s
  | Hartree multipole update                    :        0.000 s           0.000 s
  | Hartree multipole summation                 :        0.002 s           0.002 s
  | Integration                                 :        0.011 s           0.011 s
  | Solution of K.-S. eqns.                     :        0.000 s           0.000 s
  | Total energy evaluation                     :        0.000 s           0.000 s

  Partial memory accounting:
  | Current value for overall tracked memory usage:
  |   Minimum:       16.623 MB (on task 0)
  |   Maximum:       16.623 MB (on task 0)
  |   Average:       16.623 MB
  | Peak value for overall tracked memory usage:
  |   Minimum:       16.676 MB (on task 0 after allocating wave)
  |   Maximum:       16.676 MB (on task 0 after allocating wave)
  |   Average:       16.676 MB
  | Largest tracked array allocation so far:
  |   Minimum:        5.900 MB (previous_rho_gradient_diff on task 0)
  |   Maximum:        5.900 MB (previous_rho_gradient_diff on task 0)
  |   Average:        5.900 MB
  Note:  These values currently only include a subset of arrays which are explicitly tracked.
  The "true" memory usage will be greater.
------------------------------------------------------------

------------------------------------------------------------
          Begin self-consistency iteration #    2

  Date     :  20250318, Time     :  171219.976
------------------------------------------------------------
  Pulay mixing of updated and previous charge densities.
  Diagnostic output of the density mixing factors determined by the Pulay scheme:
  | Note that these factors are applied to density residuals, i.e., to density differences that are normalized to zero.
  | Iteration         Mixing factor
  | N minus   1       0.190697E+01
  Available memory per node after mixing [GB]:    123.24
  Renormalizing the density to the exact electron count on the 3D integration grid.
  | Formal number of electrons (from input files) :       8.0000000000
  | Integrated number of electrons on 3D grid     :       8.0000000000
  | Charge integration error                      :      -0.0000000000
  | Normalization factor for density and gradient :       1.0000000000

  Evaluating partitioned Hartree potential by multipole expansion.
  | Original multipole sum: apparent total charge =   0.664101E-14
  | Sum of charges compensated after spline to logarithmic grids =   0.245152E-06
  | Analytical far-field extrapolation by fixed multipoles:
  | Hartree multipole sum: apparent total charge =   0.663383E-14
  Summing up the Hartree potential.
  Time summed over all CPUs for potential: real work        0.001 s, elapsed        0.001 s
  | RMS charge density error from multipole expansion :   0.101546E-14

  Integrating Hamiltonian matrix: batch-based integration.
  Time summed over all CPUs for integration: real work        0.011 s, elapsed        0.011 s
          Integrate hamiltonian matrix                 :  max(cpu_time)    wall_clock(cpu1)
          | Total time                                  :        0.011 s           0.011 s

  Updating Kohn-Sham eigenvalues and eigenvectors using ELSI and the (modified) LAPACK eigensolver.
  Starting LAPACK eigensolver
  Finished Cholesky decomposition
  | Time :     0.000 s
  Finished transformation to standard eigenproblem
  | Time :     0.000 s
      Allocating      0.000 MB for offd
      Allocating      0.000 MB for tau
      Allocating      0.002 MB for tmp
      Deallocating offd
      Deallocating tau
      Deallocating tmp
  Finished solving standard eigenproblem
  | Time :     0.000 s
  Finished back-transformation of eigenvectors
  | Time :     0.000 s

  Obtaining occupation numbers and electronic chemical potential using ELSI.
  | Note that, for insulating systems, the printed 'chemical potential' value is not uniquely defined.
  | It can be anywhere in the energy gap, as long as it correctly separates occupied and unoccupied states.
  | In systems with a gap, the physically relevant chemical potential is the VBM or HOMO.

  | Chemical potential (Fermi level):    -7.17616541 eV
  Writing Kohn-Sham eigenvalues.

  Spin-up eigenvalues:

  State    Occupation    Eigenvalue [Ha]    Eigenvalue [eV]
      1       1.00000         -18.931314         -515.14727
      2       1.00000          -0.926288          -25.20559
      3       1.00000          -0.375329          -10.21323
      4       1.00000          -0.375301          -10.21247
      5       1.00000          -0.375290          -10.21216
      6       0.00000           0.286969            7.80883
      7       0.00000           0.286980            7.80913
      8       0.00000           0.286985            7.80925
      9       0.00000           0.616861           16.78564
     10       0.00000           1.645899           44.78718
     11       0.00000           1.645903           44.78730
     12       0.00000           1.645911           44.78751
     13       0.00000           1.645929           44.78802
     14       0.00000           1.645930           44.78803

  Spin-down eigenvalues:

  State    Occupation    Eigenvalue [Ha]    Eigenvalue [eV]
      1       1.00000         -18.885780         -513.90823
      2       1.00000          -0.807015          -21.96000
      3       1.00000          -0.263722           -7.17624
      4       0.00000          -0.263716           -7.17609
      5       0.00000          -0.263703           -7.17572
      6       0.00000           0.335091            9.11830
      7       0.00000           0.335095            9.11839
      8       0.00000           0.335103            9.11862
      9       0.00000           0.688145           18.72538
     10       0.00000           1.746005           47.51121
     11       0.00000           1.746005           47.51122
     12       0.00000           1.746013           47.51143
     13       0.00000           1.746016           47.51152
     14       0.00000           1.746018           47.51157

  Current spin moment of the entire structure :
  | N = N_up - N_down :    2.00
  | S                 :    1.00
  | J                 :    3.00

  Highest occupied state (VBM) at     -7.17623996 eV
  | Occupation number:      1.00000000
  | Spin channel:        2

  Lowest unoccupied state (CBM) at    -7.17609086 eV
  | Occupation number:      0.00000000
  | Spin channel:        2

  Overall HOMO-LUMO gap:      0.00014910 eV.

  Checking to see if s.c.f. parameters should be adjusted.
  Adjusted the Pulay mixing parameter (charge_mix_param) for an expected low-gap system. New value:   0.020000 .

  Total energy components:
  | Sum of eigenvalues            :         -40.94004100 Ha       -1114.03519705 eV
  | XC energy correction          :          -8.34736564 Ha        -227.14337607 eV
  | XC potential correction       :          10.72541421 Ha         291.85336997 eV
  | Free-atom electrostatic energy:         -36.44232393 Ha        -991.64608855 eV
  | Hartree energy correction     :          -0.08267042 Ha          -2.24957664 eV
  | Entropy correction            :          -0.00000000 Ha          -0.00000000 eV
  | ---------------------------
  | Total energy                  :         -75.08698678 Ha       -2043.22086833 eV
  | Total energy, T -> 0          :         -75.08698678 Ha       -2043.22086833 eV  <-- do not rely on this value for anything but (periodic) metals
  | Electronic free energy        :         -75.08698678 Ha       -2043.22086833 eV

  Derived energy quantities:
  | Kinetic energy                :          74.99044529 Ha        2040.59384053 eV
  | Electrostatic energy          :        -141.73006643 Ha       -3856.67133280 eV
  | Energy correction for multipole
  | error in Hartree potential    :          -0.00000000 Ha          -0.00000000 eV
  | Sum of eigenvalues per atom                           :       -1114.03519705 eV
  | Total energy (T->0) per atom                          :       -2043.22086833 eV  <-- do not rely on this value for anything but (periodic) metals
  | Electronic free energy per atom                       :       -2043.22086833 eV
  Evaluating new KS density.
  Integration grid: deviation in total charge (<rho> - N_e) =   1.776357E-14
  | <rho_up-rho_dn> = N_up-N_dn =      2.0000; <|rho_up-rho_dn|> =      2.0217

  Self-consistency convergence accuracy:
  | Change of charge/spin density :  0.1382E-02  0.7329E-02
  | Change of unmixed KS charge/spin density :  0.6691E-03  0.6690E-03
  | Change of sum of eigenvalues  : -0.8642E-03 eV
  | Change of total energy        : -0.2368E-03 eV


------------------------------------------------------------
  End self-consistency iteration #     2       :  max(cpu_time)    wall_clock(cpu1)
  | Time for this iteration                     :        0.021 s           0.021 s
  | Charge density update                       :        0.007 s           0.007 s
  | Density mixing                              :        0.001 s           0.001 s
  | Hartree multipole update                    :        0.001 s           0.001 s
  | Hartree multipole summation                 :        0.001 s           0.001 s
  | Integration                                 :        0.011 s           0.011 s
  | Solution of K.-S. eqns.                     :        0.000 s           0.000 s
  | Total energy evaluation                     :        0.000 s           0.000 s

  Partial memory accounting:
  | Current value for overall tracked memory usage:
  |   Minimum:       16.627 MB (on task 0)
  |   Maximum:       16.627 MB (on task 0)
  |   Average:       16.627 MB
  | Peak value for overall tracked memory usage:
  |   Minimum:       16.680 MB (on task 0 after allocating wave)
  |   Maximum:       16.680 MB (on task 0 after allocating wave)
  |   Average:       16.680 MB
  | Largest tracked array allocation so far:
  |   Minimum:        5.900 MB (previous_rho_gradient_diff on task 0)
  |   Maximum:        5.900 MB (previous_rho_gradient_diff on task 0)
  |   Average:        5.900 MB
  Note:  These values currently only include a subset of arrays which are explicitly tracked.
  The "true" memory usage will be greater.
------------------------------------------------------------

------------------------------------------------------------
          Begin self-consistency iteration #    3

  Date     :  20250318, Time     :  171219.997
------------------------------------------------------------
  Pulay mixing of updated and previous charge densities.
  Diagnostic output of the density mixing factors determined by the Pulay scheme:
  | Note that these factors are applied to density residuals, i.e., to density differences that are normalized to zero.
  | Iteration         Mixing factor
  | N minus   1      -0.101188E+01
  | N minus   2       0.420225E+01
  Available memory per node after mixing [GB]:    123.24
  Renormalizing the density to the exact electron count on the 3D integration grid.
  | Formal number of electrons (from input files) :       8.0000000000
  | Integrated number of electrons on 3D grid     :       8.0000000000
  | Charge integration error                      :       0.0000000000
  | Normalization factor for density and gradient :       1.0000000000

  Evaluating partitioned Hartree potential by multipole expansion.
  | Original multipole sum: apparent total charge =   0.254501E-13
  | Sum of charges compensated after spline to logarithmic grids =   0.491167E-06
  | Analytical far-field extrapolation by fixed multipoles:
  | Hartree multipole sum: apparent total charge =   0.254538E-13
  Summing up the Hartree potential.
  Time summed over all CPUs for potential: real work        0.001 s, elapsed        0.001 s
  | RMS charge density error from multipole expansion :   0.461819E-14

  Integrating Hamiltonian matrix: batch-based integration.
  Time summed over all CPUs for integration: real work        0.011 s, elapsed        0.011 s
          Integrate hamiltonian matrix                 :  max(cpu_time)    wall_clock(cpu1)
          | Total time                                  :        0.011 s           0.011 s

  Updating Kohn-Sham eigenvalues and eigenvectors using ELSI and the (modified) LAPACK eigensolver.
  Starting LAPACK eigensolver
  Finished Cholesky decomposition
  | Time :     0.000 s
  Finished transformation to standard eigenproblem
  | Time :     0.000 s
      Allocating      0.000 MB for offd
      Allocating      0.000 MB for tau
      Allocating      0.002 MB for tmp
      Deallocating offd
      Deallocating tau
      Deallocating tmp
  Finished solving standard eigenproblem
  | Time :     0.000 s
  Finished back-transformation of eigenvectors
  | Time :     0.000 s

  Obtaining occupation numbers and electronic chemical potential using ELSI.
  | Note that, for insulating systems, the printed 'chemical potential' value is not uniquely defined.
  | It can be anywhere in the energy gap, as long as it correctly separates occupied and unoccupied states.
  | In systems with a gap, the physically relevant chemical potential is the VBM or HOMO.

  | Chemical potential (Fermi level):    -7.17675928 eV
  Writing Kohn-Sham eigenvalues.

  Spin-up eigenvalues:

  State    Occupation    Eigenvalue [Ha]    Eigenvalue [eV]
      1       1.00000         -18.931364         -515.14862
      2       1.00000          -0.926285          -25.20549
      3       1.00000          -0.375318          -10.21293
      4       1.00000          -0.375308          -10.21266
      5       1.00000          -0.375298          -10.21239
      6       0.00000           0.286974            7.80897
      7       0.00000           0.286978            7.80907
      8       0.00000           0.286982            7.80918
      9       0.00000           0.616856           16.78550
     10       0.00000           1.645912           44.78754
     11       0.00000           1.645913           44.78757
     12       0.00000           1.645920           44.78775
     13       0.00000           1.645926           44.78793
     14       0.00000           1.645927           44.78795

  Spin-down eigenvalues:

  State    Occupation    Eigenvalue [Ha]    Eigenvalue [eV]
      1       1.00000         -18.885704         -513.90616
      2       1.00000          -0.807048          -21.96089
      3       1.00000          -0.263743           -7.17683
      4       0.00000          -0.263739           -7.17669
      5       0.00000          -0.263734           -7.17656
      6       0.00000           0.335104            9.11865
      7       0.00000           0.335107            9.11874
      8       0.00000           0.335110            9.11882
      9       0.00000           0.688142           18.72530
     10       0.00000           1.745980           47.51054
     11       0.00000           1.745981           47.51055
     12       0.00000           1.745983           47.51062
     13       0.00000           1.745986           47.51070
     14       0.00000           1.745987           47.51071

  Current spin moment of the entire structure :
  | N = N_up - N_down :    2.00
  | S                 :    1.00
  | J                 :    3.00

  Highest occupied state (VBM) at     -7.17682544 eV
  | Occupation number:      1.00000000
  | Spin channel:        2

  Lowest unoccupied state (CBM) at    -7.17669313 eV
  | Occupation number:      0.00000000
  | Spin channel:        2

  Overall HOMO-LUMO gap:      0.00013231 eV.

  Total energy components:
  | Sum of eigenvalues            :         -40.94006917 Ha       -1114.03596372 eV
  | XC energy correction          :          -8.34734436 Ha        -227.14279694 eV
  | XC potential correction       :          10.72538832 Ha         291.85266540 eV
  | Free-atom electrostatic energy:         -36.44232393 Ha        -991.64608855 eV
  | Hartree energy correction     :          -0.08263456 Ha          -2.24860068 eV
  | Entropy correction            :          -0.00000000 Ha          -0.00000000 eV
  | ---------------------------
  | Total energy                  :         -75.08698370 Ha       -2043.22078450 eV
  | Total energy, T -> 0          :         -75.08698370 Ha       -2043.22078450 eV  <-- do not rely on this value for anything but (periodic) metals
  | Electronic free energy        :         -75.08698370 Ha       -2043.22078450 eV

  Derived energy quantities:
  | Kinetic energy                :          74.99091585 Ha        2040.60664527 eV
  | Electrostatic energy          :        -141.73055520 Ha       -3856.68463283 eV
  | Energy correction for multipole
  | error in Hartree potential    :           0.00000000 Ha           0.00000000 eV
  | Sum of eigenvalues per atom                           :       -1114.03596372 eV
  | Total energy (T->0) per atom                          :       -2043.22078450 eV  <-- do not rely on this value for anything but (periodic) metals
  | Electronic free energy per atom                       :       -2043.22078450 eV
  Evaluating new KS density.
  Integration grid: deviation in total charge (<rho> - N_e) =   1.598721E-14
  | <rho_up-rho_dn> = N_up-N_dn =      2.0000; <|rho_up-rho_dn|> =      2.0217

  Self-consistency convergence accuracy:
  | Change of charge/spin density :  0.2102E+00  0.2103E+00
  | Change of unmixed KS charge/spin density :  0.2098E+00  0.2098E+00
  | Change of sum of eigenvalues  : -0.7667E-03 eV
  | Change of total energy        :  0.8384E-04 eV


------------------------------------------------------------
  End self-consistency iteration #     3       :  max(cpu_time)    wall_clock(cpu1)
  | Time for this iteration                     :        0.021 s           0.021 s
  | Charge density update                       :        0.007 s           0.007 s
  | Density mixing                              :        0.001 s           0.001 s
  | Hartree multipole update                    :        0.000 s           0.001 s
  | Hartree multipole summation                 :        0.001 s           0.001 s
  | Integration                                 :        0.011 s           0.011 s
  | Solution of K.-S. eqns.                     :        0.000 s           0.000 s
  | Total energy evaluation                     :        0.000 s           0.000 s

  Partial memory accounting:
  | Current value for overall tracked memory usage:
  |   Minimum:       16.627 MB (on task 0)
  |   Maximum:       16.627 MB (on task 0)
  |   Average:       16.627 MB
  | Peak value for overall tracked memory usage:
  |   Minimum:       16.680 MB (on task 0 after allocating wave)
  |   Maximum:       16.680 MB (on task 0 after allocating wave)
  |   Average:       16.680 MB
  | Largest tracked array allocation so far:
  |   Minimum:        5.900 MB (previous_rho_gradient_diff on task 0)
  |   Maximum:        5.900 MB (previous_rho_gradient_diff on task 0)
  |   Average:        5.900 MB
  Note:  These values currently only include a subset of arrays which are explicitly tracked.
  The "true" memory usage will be greater.
------------------------------------------------------------

------------------------------------------------------------
          Begin self-consistency iteration #    4

  Date     :  20250318, Time     :  171220.018
------------------------------------------------------------
  Pulay mixing of updated and previous charge densities.
  Diagnostic output of the density mixing factors determined by the Pulay scheme:
  | Note that these factors are applied to density residuals, i.e., to density differences that are normalized to zero.
  | Iteration         Mixing factor
  | N minus   1      -0.105201E+01
  | N minus   2      -0.112499E+01
  | N minus   3       0.193219E+02
  Available memory per node after mixing [GB]:    123.24
  Renormalizing the density to the exact electron count on the 3D integration grid.
  | Formal number of electrons (from input files) :       8.0000000000
  | Integrated number of electrons on 3D grid     :       8.0000000000
  | Charge integration error                      :       0.0000000000
  | Normalization factor for density and gradient :       1.0000000000

  Evaluating partitioned Hartree potential by multipole expansion.
  | Original multipole sum: apparent total charge =   0.219897E-13
  | Sum of charges compensated after spline to logarithmic grids =   0.255653E-05
  | Analytical far-field extrapolation by fixed multipoles:
  | Hartree multipole sum: apparent total charge =   0.219936E-13
  Summing up the Hartree potential.
  Time summed over all CPUs for potential: real work        0.001 s, elapsed        0.001 s
  | RMS charge density error from multipole expansion :   0.300599E-13

  Integrating Hamiltonian matrix: batch-based integration.
  Time summed over all CPUs for integration: real work        0.011 s, elapsed        0.011 s
          Integrate hamiltonian matrix                 :  max(cpu_time)    wall_clock(cpu1)
          | Total time                                  :        0.011 s           0.011 s

  Updating Kohn-Sham eigenvalues and eigenvectors using ELSI and the (modified) LAPACK eigensolver.
  Starting LAPACK eigensolver
  Finished Cholesky decomposition
  | Time :     0.000 s
  Finished transformation to standard eigenproblem
  | Time :     0.000 s
      Allocating      0.000 MB for offd
      Allocating      0.000 MB for tau
      Allocating      0.002 MB for tmp
      Deallocating offd
      Deallocating tau
      Deallocating tmp
  Finished solving standard eigenproblem
  | Time :     0.000 s
  Finished back-transformation of eigenvectors
  | Time :     0.000 s

  Obtaining occupation numbers and electronic chemical potential using ELSI.
  | Note that, for insulating systems, the printed 'chemical potential' value is not uniquely defined.
  | It can be anywhere in the energy gap, as long as it correctly separates occupied and unoccupied states.
  | In systems with a gap, the physically relevant chemical potential is the VBM or HOMO.

  | Chemical potential (Fermi level):    -7.18223971 eV
  Writing Kohn-Sham eigenvalues.

  Spin-up eigenvalues:

  State    Occupation    Eigenvalue [Ha]    Eigenvalue [eV]
      1       1.00000         -18.931764         -515.15951
      2       1.00000          -0.926244          -25.20437
      3       1.00000          -0.375314          -10.21281
      4       1.00000          -0.375313          -10.21280
      5       1.00000          -0.375310          -10.21272
      6       0.00000           0.286981            7.80916
      7       0.00000           0.286982            7.80917
      8       0.00000           0.286983            7.80920
      9       0.00000           0.616818           16.78447
     10       0.00000           1.645968           44.78907
     11       0.00000           1.645968           44.78907
     12       0.00000           1.645970           44.78912
     13       0.00000           1.645970           44.78913
     14       0.00000           1.645971           44.78914

  Spin-down eigenvalues:

  State    Occupation    Eigenvalue [Ha]    Eigenvalue [eV]
      1       1.00000         -18.885042         -513.88813
      2       1.00000          -0.807318          -21.96825
      3       1.00000          -0.263943           -7.18226
      4       0.00000          -0.263942           -7.18222
      5       0.00000          -0.263942           -7.18222
      6       0.00000           0.335204            9.12137
      7       0.00000           0.335205            9.12140
      8       0.00000           0.335205            9.12140
      9       0.00000           0.688124           18.72480
     10       0.00000           1.745751           47.50431
     11       0.00000           1.745751           47.50431
     12       0.00000           1.745752           47.50432
     13       0.00000           1.745752           47.50434
     14       0.00000           1.745752           47.50434

  Current spin moment of the entire structure :
  | N = N_up - N_down :    2.00
  | S                 :    1.00
  | J                 :    3.00

  Highest occupied state (VBM) at     -7.18225993 eV
  | Occupation number:      1.00000000
  | Spin channel:        2

  Lowest unoccupied state (CBM) at    -7.18221949 eV
  | Occupation number:      0.00000000
  | Spin channel:        2

  Overall HOMO-LUMO gap:      0.00004044 eV.

  Total energy components:
  | Sum of eigenvalues            :         -40.94024838 Ha       -1114.04084016 eV
  | XC energy correction          :          -8.34717743 Ha        -227.13825449 eV
  | XC potential correction       :          10.72518653 Ha         291.84717440 eV
  | Free-atom electrostatic energy:         -36.44232393 Ha        -991.64608855 eV
  | Hartree energy correction     :          -0.08241790 Ha          -2.24270504 eV
  | Entropy correction            :          -0.00000000 Ha          -0.00000000 eV
  | ---------------------------
  | Total energy                  :         -75.08698111 Ha       -2043.22071384 eV
  | Total energy, T -> 0          :         -75.08698111 Ha       -2043.22071384 eV  <-- do not rely on this value for anything but (periodic) metals
  | Electronic free energy        :         -75.08698111 Ha       -2043.22071384 eV

  Derived energy quantities:
  | Kinetic energy                :          74.99495913 Ha        2040.71666838 eV
  | Electrostatic energy          :        -141.73476281 Ha       -3856.79912773 eV
  | Energy correction for multipole
  | error in Hartree potential    :          -0.00000000 Ha          -0.00000000 eV
  | Sum of eigenvalues per atom                           :       -1114.04084016 eV
  | Total energy (T->0) per atom                          :       -2043.22071384 eV  <-- do not rely on this value for anything but (periodic) metals
  | Electronic free energy per atom                       :       -2043.22071384 eV
  Evaluating new KS density.
  Integration grid: deviation in total charge (<rho> - N_e) =   1.776357E-14
  | <rho_up-rho_dn> = N_up-N_dn =      2.0000; <|rho_up-rho_dn|> =      2.0216

  Self-consistency convergence accuracy:
  | Change of charge/spin density :  0.2103E+00  0.2103E+00
  | Change of unmixed KS charge/spin density :  0.3643E+00  0.3643E+00
  | Change of sum of eigenvalues  : -0.4876E-02 eV
  | Change of total energy        :  0.7066E-04 eV


------------------------------------------------------------
  End self-consistency iteration #     4       :  max(cpu_time)    wall_clock(cpu1)
  | Time for this iteration                     :        0.021 s           0.021 s
  | Charge density update                       :        0.007 s           0.007 s
  | Density mixing                              :        0.001 s           0.001 s
  | Hartree multipole update                    :        0.000 s           0.001 s
  | Hartree multipole summation                 :        0.001 s           0.001 s
  | Integration                                 :        0.011 s           0.011 s
  | Solution of K.-S. eqns.                     :        0.000 s           0.000 s
  | Total energy evaluation                     :        0.000 s           0.000 s

  Partial memory accounting:
  | Current value for overall tracked memory usage:
  |   Minimum:       16.627 MB (on task 0)
  |   Maximum:       16.627 MB (on task 0)
  |   Average:       16.627 MB
  | Peak value for overall tracked memory usage:
  |   Minimum:       16.680 MB (on task 0 after allocating wave)
  |   Maximum:       16.680 MB (on task 0 after allocating wave)
  |   Average:       16.680 MB
  | Largest tracked array allocation so far:
  |   Minimum:        5.900 MB (previous_rho_gradient_diff on task 0)
  |   Maximum:        5.900 MB (previous_rho_gradient_diff on task 0)
  |   Average:        5.900 MB
  Note:  These values currently only include a subset of arrays which are explicitly tracked.
  The "true" memory usage will be greater.
------------------------------------------------------------

------------------------------------------------------------
          Begin self-consistency iteration #    5

  Date     :  20250318, Time     :  171220.039
------------------------------------------------------------
  Pulay mixing of updated and previous charge densities.
  Diagnostic output of the density mixing factors determined by the Pulay scheme:
  | Note that these factors are applied to density residuals, i.e., to density differences that are normalized to zero.
  | Iteration         Mixing factor
  | N minus   1      -0.287187E+00
  | N minus   2       0.428577E+00
  | N minus   3       0.114530E+01
  | N minus   4       0.248730E+00
  Available memory per node after mixing [GB]:    123.24
  Renormalizing the density to the exact electron count on the 3D integration grid.
  | Formal number of electrons (from input files) :       8.0000000000
  | Integrated number of electrons on 3D grid     :       8.0000000000
  | Charge integration error                      :       0.0000000000
  | Normalization factor for density and gradient :       1.0000000000

  Evaluating partitioned Hartree potential by multipole expansion.
  | Original multipole sum: apparent total charge =   0.259677E-13
  | Sum of charges compensated after spline to logarithmic grids =   0.256026E-05
  | Analytical far-field extrapolation by fixed multipoles:
  | Hartree multipole sum: apparent total charge =   0.259880E-13
  Summing up the Hartree potential.
  Time summed over all CPUs for potential: real work        0.001 s, elapsed        0.001 s
  | RMS charge density error from multipole expansion :   0.285495E-12

  Integrating Hamiltonian matrix: batch-based integration.
  Time summed over all CPUs for integration: real work        0.010 s, elapsed        0.010 s
          Integrate hamiltonian matrix                 :  max(cpu_time)    wall_clock(cpu1)
          | Total time                                  :        0.010 s           0.011 s

  Updating Kohn-Sham eigenvalues and eigenvectors using ELSI and the (modified) LAPACK eigensolver.
  Starting LAPACK eigensolver
  Finished Cholesky decomposition
  | Time :     0.000 s
  Finished transformation to standard eigenproblem
  | Time :     0.000 s
      Allocating      0.000 MB for offd
      Allocating      0.000 MB for tau
      Allocating      0.002 MB for tmp
      Deallocating offd
      Deallocating tau
      Deallocating tmp
  Finished solving standard eigenproblem
  | Time :     0.000 s
  Finished back-transformation of eigenvectors
  | Time :     0.000 s

  Obtaining occupation numbers and electronic chemical potential using ELSI.
  | Note that, for insulating systems, the printed 'chemical potential' value is not uniquely defined.
  | It can be anywhere in the energy gap, as long as it correctly separates occupied and unoccupied states.
  | In systems with a gap, the physically relevant chemical potential is the VBM or HOMO.

  | Chemical potential (Fermi level):    -7.18224458 eV
  Writing Kohn-Sham eigenvalues.

  Spin-up eigenvalues:

  State    Occupation    Eigenvalue [Ha]    Eigenvalue [eV]
      1       1.00000         -18.931751         -515.15916
      2       1.00000          -0.926238          -25.20422
      3       1.00000          -0.375329          -10.21321
      4       1.00000          -0.375297          -10.21234
      5       1.00000          -0.375296          -10.21232
      6       0.00000           0.286976            7.80901
      7       0.00000           0.286988            7.80935
      8       0.00000           0.286989            7.80936
      9       0.00000           0.616821           16.78455
     10       0.00000           1.645959           44.78882
     11       0.00000           1.645966           44.78901
     12       0.00000           1.645966           44.78903
     13       0.00000           1.645988           44.78961
     14       0.00000           1.645988           44.78961

  Spin-down eigenvalues:

  State    Occupation    Eigenvalue [Ha]    Eigenvalue [eV]
      1       1.00000         -18.885029         -513.88779
      2       1.00000          -0.807313          -21.96811
      3       1.00000          -0.263943           -7.18225
      4       0.00000          -0.263942           -7.18224
      5       0.00000          -0.263927           -7.18182
      6       0.00000           0.335204            9.12137
      7       0.00000           0.335205            9.12138
      8       0.00000           0.335214            9.12165
      9       0.00000           0.688127           18.72489
     10       0.00000           1.745750           47.50427
     11       0.00000           1.745750           47.50427
     12       0.00000           1.745759           47.50451
     13       0.00000           1.745759           47.50452
     14       0.00000           1.745762           47.50460

  Current spin moment of the entire structure :
  | N = N_up - N_down :    2.00
  | S                 :    1.00
  | J                 :    3.00

  Highest occupied state (VBM) at     -7.18224934 eV
  | Occupation number:      1.00000000
  | Spin channel:        2

  Lowest unoccupied state (CBM) at    -7.18223982 eV
  | Occupation number:      0.00000000
  | Spin channel:        2

  Overall HOMO-LUMO gap:      0.00000952 eV.

  Total energy components:
  | Sum of eigenvalues            :         -40.94019541 Ha       -1114.03939892 eV
  | XC energy correction          :          -8.34718535 Ha        -227.13847015 eV
  | XC potential correction       :          10.72519684 Ha         291.84745515 eV
  | Free-atom electrostatic energy:         -36.44232393 Ha        -991.64608855 eV
  | Hartree energy correction     :          -0.08247764 Ha          -2.24433087 eV
  | Entropy correction            :          -0.00000000 Ha          -0.00000000 eV
  | ---------------------------
  | Total energy                  :         -75.08698550 Ha       -2043.22083334 eV
  | Total energy, T -> 0          :         -75.08698550 Ha       -2043.22083334 eV  <-- do not rely on this value for anything but (periodic) metals
  | Electronic free energy        :         -75.08698550 Ha       -2043.22083334 eV

  Derived energy quantities:
  | Kinetic energy                :          74.99501273 Ha        2040.71812694 eV
  | Electrostatic energy          :        -141.73481287 Ha       -3856.80049014 eV
  | Energy correction for multipole
  | error in Hartree potential    :           0.00000000 Ha           0.00000000 eV
  | Sum of eigenvalues per atom                           :       -1114.03939892 eV
  | Total energy (T->0) per atom                          :       -2043.22083334 eV  <-- do not rely on this value for anything but (periodic) metals
  | Electronic free energy per atom                       :       -2043.22083334 eV
  Evaluating new KS density.
  Integration grid: deviation in total charge (<rho> - N_e) =  -7.993606E-15
  | <rho_up-rho_dn> = N_up-N_dn =      2.0000; <|rho_up-rho_dn|> =      2.0216

  Self-consistency convergence accuracy:
  | Change of charge/spin density :  0.2104E+00  0.2104E+00
  | Change of unmixed KS charge/spin density :  0.3643E+00  0.3643E+00
  | Change of sum of eigenvalues  :  0.1441E-02 eV
  | Change of total energy        : -0.1195E-03 eV


------------------------------------------------------------
  End self-consistency iteration #     5       :  max(cpu_time)    wall_clock(cpu1)
  | Time for this iteration                     :        0.021 s           0.022 s
  | Charge density update                       :        0.007 s           0.008 s
  | Density mixing                              :        0.001 s           0.002 s
  | Hartree multipole update                    :        0.000 s           0.000 s
  | Hartree multipole summation                 :        0.001 s           0.001 s
  | Integration                                 :        0.010 s           0.011 s
  | Solution of K.-S. eqns.                     :        0.000 s           0.000 s
  | Total energy evaluation                     :        0.000 s           0.000 s

  Partial memory accounting:
  | Current value for overall tracked memory usage:
  |   Minimum:       16.627 MB (on task 0)
  |   Maximum:       16.627 MB (on task 0)
  |   Average:       16.627 MB
  | Peak value for overall tracked memory usage:
  |   Minimum:       16.681 MB (on task 0 after allocating wave)
  |   Maximum:       16.681 MB (on task 0 after allocating wave)
  |   Average:       16.681 MB
  | Largest tracked array allocation so far:
  |   Minimum:        5.900 MB (previous_rho_gradient_diff on task 0)
  |   Maximum:        5.900 MB (previous_rho_gradient_diff on task 0)
  |   Average:        5.900 MB
[...]
  |   Maximum:        5.900 MB (previous_rho_gradient_diff on task 0)
  |   Average:        5.900 MB
  Note:  These values currently only include a subset of arrays which are explicitly tracked.
  The "true" memory usage will be greater.
------------------------------------------------------------

------------------------------------------------------------
          Begin self-consistency iteration #  220

  Date     :  20250318, Time     :  171225.474
------------------------------------------------------------
  Pulay mixing of updated and previous charge densities.
  Diagnostic output of the density mixing factors determined by the Pulay scheme:
  | Note that these factors are applied to density residuals, i.e., to density differences that are normalized to zero.
  | Iteration         Mixing factor
  | N minus   1       0.362665E+00
  | N minus   2       0.547263E+00
  | N minus   3       0.721946E+00
  | N minus   4       0.635577E+00
  | N minus   5      -0.379832E+00
  | N minus   6      -0.248731E+00
  | N minus   7       0.465927E-01
  | N minus   8      -0.562197E-01
  | N minus   9       0.135980E+00
  | N minus  10       0.765571E+00
  | N minus  11       0.812136E+00
  | N minus  12       0.100309E+01
  | N minus  13       0.913790E+00
  | N minus  14       0.969002E+00
  | N minus  15       0.117591E+01
  | N minus  16       0.351995E+00
  | N minus  17       0.568301E+00
  | N minus  18       0.792474E-01
  | N minus  19      -0.573093E-01
  | N minus  20       0.291778E+00
  Available memory per node after mixing [GB]:    123.21
  Renormalizing the density to the exact electron count on the 3D integration grid.
  | Formal number of electrons (from input files) :       8.0000000000
  | Integrated number of electrons on 3D grid     :       8.0000000000
  | Charge integration error                      :      -0.0000000000
  | Normalization factor for density and gradient :       1.0000000000

  Evaluating partitioned Hartree potential by multipole expansion.
  | Original multipole sum: apparent total charge =   0.177295E-13
  | Sum of charges compensated after spline to logarithmic grids =   0.449816E-05
  | Analytical far-field extrapolation by fixed multipoles:
  | Hartree multipole sum: apparent total charge =   0.177235E-13
  Summing up the Hartree potential.
  Time summed over all CPUs for potential: real work        0.001 s, elapsed        0.001 s
  | RMS charge density error from multipole expansion :   0.212187E-11

  Integrating Hamiltonian matrix: batch-based integration.
  Time summed over all CPUs for integration: real work        0.011 s, elapsed        0.011 s
          Integrate hamiltonian matrix                 :  max(cpu_time)    wall_clock(cpu1)
          | Total time                                  :        0.011 s           0.011 s

  Updating Kohn-Sham eigenvalues and eigenvectors using ELSI and the (modified) LAPACK eigensolver.
  Starting LAPACK eigensolver
  Finished Cholesky decomposition
  | Time :     0.000 s
  Finished transformation to standard eigenproblem
  | Time :     0.000 s
      Allocating      0.000 MB for offd
      Allocating      0.000 MB for tau
      Allocating      0.002 MB for tmp
      Deallocating offd
      Deallocating tau
      Deallocating tmp
  Finished solving standard eigenproblem
  | Time :     0.000 s
  Finished back-transformation of eigenvectors
  | Time :     0.000 s

  Obtaining occupation numbers and electronic chemical potential using ELSI.
  | Note that, for insulating systems, the printed 'chemical potential' value is not uniquely defined.
  | It can be anywhere in the energy gap, as long as it correctly separates occupied and unoccupied states.
  | In systems with a gap, the physically relevant chemical potential is the VBM or HOMO.

  | Chemical potential (Fermi level):    -7.01236058 eV
  Writing Kohn-Sham eigenvalues.

  Spin-up eigenvalues:

  State    Occupation    Eigenvalue [Ha]    Eigenvalue [eV]
      1       1.00000         -18.928553         -515.07215
      2       1.00000          -0.925367          -25.18052
      3       1.00000          -0.399159          -10.86166
      4       1.00000          -0.399156          -10.86159
      5       1.00000          -0.322440           -8.77404
      6       0.00000           0.278066            7.56656
      7       0.00000           0.278067            7.56660
      8       0.00000           0.307609            8.37047
      9       0.00000           0.618206           16.82225
     10       0.00000           1.613426           43.90357
     11       0.00000           1.613427           43.90358
     12       0.00000           1.664844           45.30270
     13       0.00000           1.664846           45.30276
     14       0.00000           1.683438           45.80867

  Spin-down eigenvalues:

  State    Occupation    Eigenvalue [Ha]    Eigenvalue [eV]
      1       1.00000         -18.879069         -513.72561
      2       1.00000          -0.793410          -21.58978
      3       1.00000          -0.276272           -7.51774
      4       0.00000          -0.239127           -6.50698
      5       0.00000          -0.239121           -6.50683
      6       0.00000           0.327221            8.90413
      7       0.00000           0.351131            9.55477
      8       0.00000           0.351138            9.55495
      9       0.00000           0.695995           18.93899
     10       0.00000           1.742660           47.42020
     11       0.00000           1.742667           47.42037
     12       0.00000           1.755840           47.77885
     13       0.00000           1.773990           48.27271
     14       0.00000           1.774002           48.27304

  Current spin moment of the entire structure :
  | N = N_up - N_down :    2.00
  | S                 :    1.00
  | J                 :    3.00

  Highest occupied state (VBM) at     -7.51774014 eV
  | Occupation number:      1.00000000
  | Spin channel:        2

  Lowest unoccupied state (CBM) at    -6.50698102 eV
  | Occupation number:      0.00000000
  | Spin channel:        2

  Overall HOMO-LUMO gap:      1.01075912 eV.

  Total energy components:
  | Sum of eigenvalues            :         -40.92342606 Ha       -1113.58308157 eV
  | XC energy correction          :          -8.38616636 Ha        -228.19919717 eV
  | XC potential correction       :          10.77386838 Ha         293.17187499 eV
  | Free-atom electrostatic energy:         -36.44232393 Ha        -991.64608855 eV
  | Hartree energy correction     :          -0.12165909 Ha          -3.31051241 eV
  | Entropy correction            :          -0.00000000 Ha          -0.00000000 eV
  | ---------------------------
  | Total energy                  :         -75.09970706 Ha       -2043.56700472 eV
  | Total energy, T -> 0          :         -75.09970706 Ha       -2043.56700472 eV  <-- do not rely on this value for anything but (periodic) metals
  | Electronic free energy        :         -75.09970706 Ha       -2043.56700472 eV

  Derived energy quantities:
  | Kinetic energy                :          75.00402306 Ha        2040.96331051 eV
  | Electrostatic energy          :        -141.71756377 Ha       -3856.33111805 eV
  | Energy correction for multipole
  | error in Hartree potential    :          -0.00000000 Ha          -0.00000000 eV
  | Sum of eigenvalues per atom                           :       -1113.58308157 eV
  | Total energy (T->0) per atom                          :       -2043.56700472 eV  <-- do not rely on this value for anything but (periodic) metals
  | Electronic free energy per atom                       :       -2043.56700472 eV

  Self-consistency convergence accuracy:
  | Change of charge/spin density :  0.2312E-04  0.7128E-04
  | Change of unmixed KS charge/spin density :  0.3533E-05  0.4175E-05
  | Change of sum of eigenvalues  :  0.6530E-07 eV
  | Change of total energy        : -0.4571E-09 eV

  Writing Kohn-Sham eigenvalues.

  Spin-up eigenvalues:

  State    Occupation    Eigenvalue [Ha]    Eigenvalue [eV]
      1       1.00000         -18.928553         -515.07215
      2       1.00000          -0.925367          -25.18052
      3       1.00000          -0.399159          -10.86166
      4       1.00000          -0.399156          -10.86159
      5       1.00000          -0.322440           -8.77404
      6       0.00000           0.278066            7.56656
      7       0.00000           0.278067            7.56660
      8       0.00000           0.307609            8.37047
      9       0.00000           0.618206           16.82225
     10       0.00000           1.613426           43.90357
     11       0.00000           1.613427           43.90358
     12       0.00000           1.664844           45.30270
     13       0.00000           1.664846           45.30276
     14       0.00000           1.683438           45.80867

  Spin-down eigenvalues:

  State    Occupation    Eigenvalue [Ha]    Eigenvalue [eV]
      1       1.00000         -18.879069         -513.72561
      2       1.00000          -0.793410          -21.58978
      3       1.00000          -0.276272           -7.51774
      4       0.00000          -0.239127           -6.50698
      5       0.00000          -0.239121           -6.50683
      6       0.00000           0.327221            8.90413
      7       0.00000           0.351131            9.55477
      8       0.00000           0.351138            9.55495
      9       0.00000           0.695995           18.93899
     10       0.00000           1.742660           47.42020
     11       0.00000           1.742667           47.42037
     12       0.00000           1.755840           47.77885
     13       0.00000           1.773990           48.27271
     14       0.00000           1.774002           48.27304

  Current spin moment of the entire structure :
  | N = N_up - N_down :    2.00
  | S                 :    1.00
  | J                 :    3.00

  Highest occupied state (VBM) at     -7.51774014 eV
  | Occupation number:      1.00000000
  | Spin channel:        2

  Lowest unoccupied state (CBM) at    -6.50698102 eV
  | Occupation number:      0.00000000
  | Spin channel:        2

  Overall HOMO-LUMO gap:      1.01075912 eV.

  | Chemical Potential                          :    -7.01236058 eV
  | Note that, for insulating systems, the printed 'chemical potential' value is not uniquely defined.
  | It can be anywhere in the energy gap, as long as it correctly separates occupied and unoccupied states.
  | In systems with a gap, the physically relevant chemical potential is the VBM or HOMO.

  Self-consistency cycle converged.

  Performing RI decomposition of the total charge density.

------------------------------------------------------------
  End self-consistency iteration #   220       :  max(cpu_time)    wall_clock(cpu1)
  | Time for this iteration                     :        0.018 s           0.018 s
  | Charge density update                       :        0.000 s           0.000 s
  | Density mixing                              :        0.004 s           0.004 s
  | Hartree multipole update                    :        0.001 s           0.001 s
  | Hartree multipole summation                 :        0.001 s           0.001 s
  | Integration                                 :        0.011 s           0.011 s
  | Solution of K.-S. eqns.                     :        0.000 s           0.001 s
  | Total energy evaluation                     :        0.000 s           0.000 s

  Partial memory accounting:
  | Current value for overall tracked memory usage:
  |   Minimum:       16.632 MB (on task 0)
  |   Maximum:       16.632 MB (on task 0)
  |   Average:       16.632 MB
  | Peak value for overall tracked memory usage:
  |   Minimum:       16.685 MB (on task 0 after allocating wave)
  |   Maximum:       16.685 MB (on task 0 after allocating wave)
  |   Average:       16.685 MB
  | Largest tracked array allocation so far:
  |   Minimum:        5.900 MB (previous_rho_gradient_diff on task 0)
  |   Maximum:        5.900 MB (previous_rho_gradient_diff on task 0)
  |   Average:        5.900 MB
  Note:  These values currently only include a subset of arrays which are explicitly tracked.
  The "true" memory usage will be greater.
------------------------------------------------------------
  Writing cluster restart information to file restart.1
  Restart file: Writing        14 states.

  Energy and forces in a compact form:
  | Total energy uncorrected      :         -0.204356700471790E+04 eV
  | Total energy corrected        :         -0.204356700471790E+04 eV  <-- do not rely on this value for anything but (periodic) metals
  | Electronic free energy        :         -0.204356700471790E+04 eV

  ------------------------------------ 
  Start decomposition of the XC Energy 
  ------------------------------------ 
  X and C from original XC functional choice 
  Hartree-Fock Energy :          0.000000000 Ha              0.000000000 eV
  X Energy            :         -8.152944380 Ha           -221.852904320 eV
  C Energy            :         -0.233221976 Ha             -6.346292854 eV
  XC Energy w/o HF    :         -8.386166355 Ha           -228.199197174 eV
  Total XC Energy     :         -8.386166355 Ha           -228.199197174 eV
  ------------------------------------ 
  LDA X and C from self-consistent density 
  X Energy LDA        :         -7.366020992 Ha           -200.439629459 eV
  C Energy LDA        :         -0.530499779 Ha            -14.435633469 eV
  ------------------------------------ 
  End decomposition of the XC Energy 
  ------------------------------------ 

------------------------------------------------------------

------------------------------------------------------------------------------
  Final output of selected total energy values:

  The following output summarizes some interesting total energy values
  at the end of a run (AFTER all relaxation, molecular dynamics, etc.).

  | Total energy of the DFT / Hartree-Fock s.c.f. calculation      :          -2043.567004718 eV
  | Final zero-broadening corrected energy (caution - metals only) :          -2043.567004718 eV
  | For reference only, the value of 1 Hartree used in FHI-aims is :             27.211384500 eV

  Before relying on these values, please be sure to understand exactly which
  total energy value is referred to by a given number. Different objects may
  all carry the same name 'total energy'. Definitions:

  Total energy of the DFT / Hartree-Fock s.c.f. calculation:
  | Note that this energy does not include ANY quantities calculated after the
  | s.c.f. cycle, in particular not ANY RPA, MP2, etc. many-body perturbation terms.

  Final zero-broadening corrected energy:
  | For metallic systems only, a broadening of the occupation numbers at the Fermi
  | level can be extrapolated back to zero broadening by an electron-gas inspired
  | formula. For all systems that are not real metals, this value can be
  | meaningless and should be avoided.

------------------------------------------------------------------------------
  Methods described in the following list of references were used in this FHI-aims run.
  If you publish the results, please make sure to cite these reference if they apply.
  FHI-aims is an academic code, and for our developers (often, Ph.D. students
  and postdocs), scientific credit in the community is essential.
  Thank you for helping us!

  For any use of FHI-aims, please cite:

    Volker Blum, Ralf Gehrke, Felix Hanke, Paula Havu, Ville Havu,
    Xinguo Ren, Karsten Reuter, and Matthias Scheffler
    'Ab initio molecular simulations with numeric atom-centered orbitals'
    Computer Physics Communications 180, 2175-2196 (2009)
    http://doi.org/10.1016/j.cpc.2009.06.022


  The ELSI infrastructure was used in your run to solve the Kohn-Sham electronic structure.
  Please check out https://wordpress.elsi-interchange.org to learn more.
  If scalability is important for your project, please acknowledge ELSI by citing:

    V. W-z. Yu, F. Corsetti, A. Garcia, W. P. Huhn, M. Jacquelin, W. Jia,
    B. Lange, L. Lin, J. Lu, W. Mi, A. Seifitokaldani, A. Vazquez-Mayagoitia,
    C. Yang, H. Yang, and V. Blum
    'ELSI: A unified software interface for Kohn-Sham electronic structure solvers'
    Computer Physics Communications 222, 267-285 (2018).
    http://doi.org/10.1016/j.cpc.2017.09.007


  For the real-space grid partitioning and parallelization used in this calculation, please cite:

    Ville Havu, Volker Blum, Paula Havu, and Matthias Scheffler,
    'Efficient O(N) integration for all-electron electronic structure calculation'
    'using numerically tabulated basis functions'
    Journal of Computational Physics 228, 8367-8379 (2009).
    http://doi.org/10.1016/j.jcp.2009.08.008

  Of course, there are many other important community references, e.g., those cited in the
  above references. Our list is limited to references that describe implementations in the
  FHI-aims code. The reason is purely practical (length of this list) - please credit others as well.

   One or more s.c.f. cycles took more than 50 s.c.f. iterations.
   It might be worth adjusting your convergence settings. For example,
   metals need a larger broadening and a smaller "charge_mix_param" value than semiconductors.

------------------------------------------------------------
          Leaving FHI-aims.
          Date     :  20250318, Time     :  171225.499

          Computational steps:
          | Number of self-consistency cycles          :          220
          | Number of SCF (re)initializations          :            1

          Detailed time accounting                     :  max(cpu_time)    wall_clock(cpu1)
          | Total time                                  :        5.731 s           5.732 s
          | Preparation time                            :        0.145 s           0.145 s
          | Boundary condition initalization            :        0.000 s           0.000 s
          | Grid partitioning                           :        0.005 s           0.005 s
          | Preloading free-atom quantities on grid     :        0.005 s           0.006 s
          | Free-atom superposition energy              :        0.004 s           0.004 s
          | Total time for integrations                 :        2.383 s           2.374 s
          | Total time for solution of K.-S. equations  :        0.065 s           0.071 s
          | Total time for density update               :        1.524 s           1.516 s
          | Total time for mixing                       :        1.079 s           1.070 s
          | Total time for Hartree multipole update     :        0.120 s           0.125 s
          | Total time for Hartree multipole sum        :        0.285 s           0.287 s
          | Total time for total energy evaluation      :        0.018 s           0.019 s
          | Total time for scaled ZORA corrections      :        0.000 s           0.000 s

          Partial memory accounting:
          | Residual value for overall tracked memory usage across tasks:     0.000000 MB (should be 0.000000 MB)
          | Peak values for overall tracked memory usage:
          |   Minimum:       16.685 MB (on task 0 after allocating wave)
          |   Maximum:       16.685 MB (on task 0 after allocating wave)
          |   Average:       16.685 MB
          | Largest tracked array allocation:
          |   Minimum:        5.900 MB (previous_rho_gradient_diff on task 0)
          |   Maximum:        5.900 MB (previous_rho_gradient_diff on task 0)
          |   Average:        5.900 MB
          Note:  These values currently only include a subset of arrays which are explicitly tracked.
          The "true" memory usage will be greater.

          Have a nice day.
------------------------------------------------------------
